data_NIMS_MatNavi_4297017475_1_2

#
# COPYRIGHT NOTICE
#
# This CIF data is created using data from AtomWork, published 2010/06 by
# National Institute for Materials Science (NIMS), Tsukuba, Japan. Copyright
# 2010 by NIMS and  Materials Phases Data system (MPDS), Vitznau,
# Switzerland. All Rghts Reserved.
#
# DISCLAIMER
#
# The values reported here are taken from the literature and other sources and
# the author does not warrant their correctness nor accept any
# responsibility for errors. Users are advised to consult the primarysources.
#

_chemical_formula_sum 'O2 Zr'
_space_group_crystal_system monoclinic
_symmetry_space_group_name_H-M 'P 21/c'
_symmetry_Int_Tables_number 14

loop_
    _symmetry_equiv_pos_site_id
    _symmetry_equiv_pos_as_xyz
1 x,y,z
2 -x,y+1/2,-z+1/2
3 -x,-y,-z
4 x,-y+1/2,z+1/2

_cell_length_a 5.1526
_cell_length_b 5.2077
_cell_length_c 5.3195
_cell_angle_alpha 90
_cell_angle_beta 99.244
_cell_angle_gamma 90
_cell_volume 140.89
_cell_formula_units_Z 4

loop_
    _atom_site_label
    _atom_site_fract_x
    _atom_site_fract_y
    _atom_site_fract_z
    _atom_site_occupancy
    _atom_site_symmetry_multiplicity
    _atom_site_Wyckoff_symbol
    _atom_site_U_iso_or_equiv
    _atom_site_type_symbol
O1 0.069 0.3301 0.3467 1.0 4 e 0.008739 O
Zr 0.2749 0.0392 0.2077 1.0 4 e 0.005066 Zr
O2 0.5494 0.2566 0.0214 1.0 4 e 0.005953 O

_publ_section_title 'The polymorphs of zirconia: phase abundance and crystal structure by Rietveld analysis of neutron and X-ray diffraction data'
_journal_coden_ASTM JMTSAS
_journal_name_full 'J. Mater. Sci.'
_journal_year 1991
_journal_volume 26
_journal_page_first 127
_journal_page_last 134
_journal_language English

loop_
    _publ_author_name
'Howard C.J.'
'Hill R.J.'
